/*--------------------------------*- C++ -*----------------------------------*\
| =========                 |                                                 |
| \\      /  F ield         | OpenFOAM: The Open Source CFD Toolbox           |
|  \\    /   O peration     | Version:  v2012                                 |
|   \\  /    A nd           | Website:  www.openfoam.com                      |
|    \\/     M anipulation  |                                                 |
\*---------------------------------------------------------------------------*/
FoamFile
{
    version     2.0;
    format      ascii;
    class       volScalarField;
    object      epsilon;
}
// * * * * * * * * * * * * * * * * * * * * * * * * * * * * * * * * * * * * * //

#include "IC/InternalE"

dimensions [ 0 2 -3 0 0 0 0 ];

internalField nonuniform $epsilonField;

boundaryField
{
    Inlet
    {
        type                 cyclic;
    }

    Outlet
    {
        type 		     cyclic;
    }

    Bottom
    {
        type			atmEpsilonWallFunction;
        z0			uniform 0.000033474;
        Cmu			0.09;
        kappa			0.41;
        value			uniform 0.01;
    }

    Top
    {
	type            uniformFixedValue;
        uniformValue    7.14;
        value           uniform 7.14;
    }

    Back
    {
	type		cyclic;
    }

    Front
    {
	type		cyclic;
    }

}
